                         Program Version 4.2.1 -  RELEASE  -
|  1> !b3lyp ma-def2-svp d3bj opt freq
|  2>
|  3>
|  4> * xyz 0 1
|  5> C          2.05639       -0.16543        0.39727
|  6> C          0.68890        2.02854       -0.64816
|  7> C          2.74071        1.02327        0.12533
|  8> C          2.05734        2.11782       -0.40016
|  9> C         -3.59396        1.03209        0.04589
| 10> C          0.67738       -0.27507        0.15097
| 11> C          0.00274        0.84234       -0.35887
| 12> O          0.63293       -2.54526        0.93360
| 13> O         -1.76452        1.43252        1.56571
| 14> O         -1.24894       -1.68411        0.12975
| 15> C          0.05278       -1.58881        0.44958
| 16> C         -2.15199        1.12841        0.44513
| 17> O         -1.36167        0.82832       -0.65825
| 18> H         -1.47652       -2.60111        0.39232
| 19> H          2.60948       -1.01173        0.80284
| 20> H          0.15708        2.88266       -1.05823
| 21> H          3.80777        1.09126        0.32364
| 22> H          2.59044        3.04081       -0.61405
| 23> H         -3.81640        0.02049       -0.30287
| 24> H         -4.22480        1.24591        0.91440
| 25> H 	  -3.81296	  1.76576 	-0.73332
| 26> **                         ****END OF INPUT****
 Total Charge           Charge          ....    0
 Multiplicity           Mult            ....    1
 Number of Electrons    NEL             ....   94
Dispersion correction           -0.039398017
FINAL SINGLE POINT ENERGY      -647.936291068663
Dispersion correction            ... done
Dispersion correction           -0.039453494
FINAL SINGLE POINT ENERGY      -647.940901292929
Dispersion correction            ... done
Dispersion correction           -0.039407689
FINAL SINGLE POINT ENERGY      -647.941452019717
Dispersion correction            ... done
FINAL SINGLE POINT ENERGY      -647.941650130497
FINAL SINGLE POINT ENERGY      -647.941921986337
FINAL SINGLE POINT ENERGY      -647.941941080869
FINAL SINGLE POINT ENERGY      -647.941964433468
FINAL SINGLE POINT ENERGY      -647.941980890981
FINAL SINGLE POINT ENERGY      -647.941997184922
FINAL SINGLE POINT ENERGY      -647.942014147052
Dispersion correction           -0.039588385
FINAL SINGLE POINT ENERGY      -647.942019358173
Dispersion correction            ... done
Dispersion correction           -0.039588470
FINAL SINGLE POINT ENERGY      -647.942023492235
Dispersion correction            ... done
                    ***********************HURRAY********************

CARTESIAN COORDINATES (ANGSTROEM)
---------------------------------
  C      2.066011   -0.154061    0.356218
  C      0.753146    2.096632   -0.621793
  C      2.797690    0.989368    0.046765
  C      2.137297    2.119241   -0.448550
  C     -3.623083    0.955720    0.011605
  C      0.671529   -0.204677    0.177037
  C      0.024182    0.947322   -0.312166
  O      0.585520   -2.412675    1.074981
  O     -1.842888    1.085476    1.645748
  O     -1.283853   -1.596965    0.162081
  C      0.013024   -1.497016    0.526941
  C     -2.205705    1.017329    0.502496
  O     -1.335409    0.992686   -0.555473
  H     -1.583710   -2.472998    0.457527
  H      2.557849   -1.046957    0.745170
  H      0.213809    2.967461   -0.998107
  H      3.879955    1.000913    0.192185
  H      2.698742    3.023378   -0.696208
  H     -3.781381   -0.005623   -0.501313
  H     -4.312369    1.048924    0.859167
  H     -3.808178    1.755203   -0.721790

 Multiplicity           Mult            ....    1
 Number of Electrons    NEL             ....   94
 Basis Dimension        Dim             ....  274

ORBITAL ENERGIES
----------------

  NO   OCC          E(Eh)            E(eV)
   0   2.0000     -19.198511      -522.4181
   1   2.0000     -19.198260      -522.4112
   2   2.0000     -19.139784      -520.8200
   3   2.0000     -19.137730      -520.7641
   4   2.0000     -10.335558      -281.2448
   5   2.0000     -10.333668      -281.1934
   6   2.0000     -10.277245      -279.6580
   7   2.0000     -10.223452      -278.1943
   8   2.0000     -10.217448      -278.0309
   9   2.0000     -10.213397      -277.9206
  10   2.0000     -10.211696      -277.8744
  11   2.0000     -10.209181      -277.8060
  12   2.0000     -10.208160      -277.7782
  13   2.0000      -1.120245       -30.4834
  14   2.0000      -1.110376       -30.2149
  15   2.0000      -1.030262       -28.0348
  16   2.0000      -1.018211       -27.7069
  17   2.0000      -0.873092       -23.7580
  18   2.0000      -0.785595       -21.3771
  19   2.0000      -0.778141       -21.1743
  20   2.0000      -0.741193       -20.1689
  21   2.0000      -0.679943       -18.5022
  22   2.0000      -0.649601       -17.6765
  23   2.0000      -0.611461       -16.6387
  24   2.0000      -0.591227       -16.0881
  25   2.0000      -0.530467       -14.4347
  26   2.0000      -0.516774       -14.0621
  27   2.0000      -0.504558       -13.7297
  28   2.0000      -0.496646       -13.5144
  29   2.0000      -0.483369       -13.1531
  30   2.0000      -0.481632       -13.1059
  31   2.0000      -0.467114       -12.7108
  32   2.0000      -0.461024       -12.5451
  33   2.0000      -0.448731       -12.2106
  34   2.0000      -0.422935       -11.5086
  35   2.0000      -0.420357       -11.4385
  36   2.0000      -0.414747       -11.2858
  37   2.0000      -0.400267       -10.8918
  38   2.0000      -0.386945       -10.5293
  39   2.0000      -0.376792       -10.2530
  40   2.0000      -0.372916       -10.1476
  41   2.0000      -0.339849        -9.2478
  42   2.0000      -0.329924        -8.9777
  43   2.0000      -0.299167        -8.1407
  44   2.0000      -0.295516        -8.0414
  45   2.0000      -0.278485        -7.5780
  46   2.0000      -0.268347        -7.3021
  47   0.0000      -0.069550        -1.8926
  48   0.0000      -0.031979        -0.8702
  49   0.0000      -0.009861        -0.2683
  50   0.0000      -0.003655        -0.0995
  51   0.0000       0.009198         0.2503

MULLIKEN ATOMIC CHARGES
-----------------------
   0 C :   -0.279788
   1 C :    0.165485
   2 C :    0.358303
   3 C :    0.335931
   4 C :    0.288364
   5 C :    0.103008
   6 C :   -0.498974
   7 O :   -0.319093
   8 O :   -0.326574
   9 O :   -0.347296
  10 C :    0.116254
  11 C :   -0.281711
  12 O :   -0.236396
  13 H :    0.351333
  14 H :    0.076864
  15 H :    0.034328
  16 H :    0.053161
  17 H :    0.050468
  18 H :    0.124588
  19 H :    0.119199
  20 H :    0.112548
Sum of atomic charges:   -0.0000000

LOEWDIN ATOMIC CHARGES
----------------------
   0 C :   -0.022037
   1 C :   -0.060238
   2 C :   -0.086866
   3 C :   -0.056488
   4 C :   -0.133808
   5 C :   -0.087015
   6 C :    0.071898
   7 O :   -0.283136
   8 O :   -0.244655
   9 O :   -0.174274
  10 C :    0.189976
  11 C :    0.146837
  12 O :   -0.258095
  13 H :    0.198845
  14 H :    0.128673
  15 H :    0.121328
  16 H :    0.107482
  17 H :    0.107263
  18 H :    0.116840
  19 H :    0.106151
  20 H :    0.111319

  Mayer bond orders larger than 0.100000
B(  0-C ,  1-C ) :  -0.1496 B(  0-C ,  2-C ) :   1.2453 B(  0-C ,  3-C ) :   0.2351
B(  0-C ,  5-C ) :   1.6381 B(  0-C ,  6-C ) :   0.4393 B(  0-C , 14-H ) :   0.8692
B(  0-C , 16-H ) :   0.1062 B(  1-C ,  2-C ) :   0.1420 B(  1-C ,  3-C ) :   1.2045
B(  1-C ,  5-C ) :   0.2563 B(  1-C ,  6-C ) :   1.7444 B(  1-C , 15-H ) :   0.8444
B(  2-C ,  3-C ) :   1.2726 B(  2-C , 14-H ) :  -0.1845 B(  2-C , 16-H ) :   0.8912
B(  3-C , 15-H ) :  -0.2004 B(  3-C , 16-H ) :  -0.1054 B(  3-C , 17-H ) :   0.9233
B(  4-C , 11-C ) :   1.2254 B(  4-C , 18-H ) :   0.8493 B(  4-C , 19-H ) :   0.8458
B(  4-C , 20-H ) :   0.8501 B(  5-C ,  6-C ) :   1.5010 B(  5-C ,  7-O ) :  -0.2039
B(  5-C ,  8-O ) :   0.1404 B(  5-C , 10-C ) :   0.7999 B(  5-C , 14-H ) :   0.1003
B(  5-C , 15-H ) :   0.1425 B(  6-C , 10-C ) :   0.1555 B(  6-C , 12-O ) :   0.8841
B(  6-C , 14-H ) :   0.1681 B(  6-C , 15-H ) :   0.1849 B(  7-O ,  9-O ) :  -0.1168
B(  7-O , 10-C ) :   2.0009 B(  8-O , 11-C ) :   2.1530 B(  8-O , 12-O ) :  -0.1207
B(  9-O , 10-C ) :   1.0302 B(  9-O , 13-H ) :   0.7853 B( 11-C , 12-O ) :   0.9218
B( 11-C , 18-H ) :   0.1110 B( 11-C , 19-H ) :   0.1409 B( 11-C , 20-H ) :   0.1196

Dispersion correction           -0.039587663
FINAL SINGLE POINT ENERGY      -647.942024868448

DIPOLE MOMENT
-------------
                                X             Y             Z
Electronic contribution:      2.14435      -3.14900       1.25737
Nuclear contribution   :     -2.48616       3.72418      -2.24360
                        -----------------------------------------
Total Dipole Moment    :     -0.34180       0.57519      -0.98624
                        -----------------------------------------
Magnitude (a.u.)       :      1.19178
Magnitude (Debye)      :      3.02926

Dispersion correction in the Hessian             ... done   (      3.3 sec)

VIBRATIONAL FREQUENCIES
-----------------------

Scaling factor for frequencies =  1.000000000  (already applied!)

   0:         0.00 cm**-1
   1:         0.00 cm**-1
   2:         0.00 cm**-1
   3:         0.00 cm**-1
   4:         0.00 cm**-1
   5:         0.00 cm**-1
   6:        36.20 cm**-1
   7:        71.48 cm**-1
   8:        82.87 cm**-1
   9:        91.06 cm**-1
  10:       105.41 cm**-1
  11:       139.08 cm**-1
  12:       231.48 cm**-1
  13:       276.52 cm**-1
  14:       312.29 cm**-1
  15:       363.90 cm**-1
  16:       410.23 cm**-1
  17:       442.91 cm**-1
  18:       519.84 cm**-1
  19:       547.05 cm**-1
  20:       558.12 cm**-1
  21:       597.28 cm**-1
  22:       602.20 cm**-1
  23:       640.29 cm**-1
  24:       672.95 cm**-1
  25:       727.07 cm**-1
  26:       752.35 cm**-1
  27:       780.47 cm**-1
  28:       818.82 cm**-1
  29:       844.01 cm**-1
  30:       903.19 cm**-1
  31:       943.20 cm**-1
  32:       997.11 cm**-1
  33:      1012.22 cm**-1
  34:      1017.32 cm**-1
  35:      1047.25 cm**-1
  36:      1059.84 cm**-1
  37:      1110.99 cm**-1
  38:      1130.21 cm**-1
  39:      1166.92 cm**-1
  40:      1204.82 cm**-1
  41:      1234.90 cm**-1
  42:      1244.92 cm**-1
  43:      1282.69 cm**-1
  44:      1366.27 cm**-1
  45:      1379.52 cm**-1
  46:      1382.38 cm**-1
  47:      1439.14 cm**-1
  48:      1446.53 cm**-1
  49:      1484.99 cm**-1
  50:      1517.54 cm**-1
  51:      1626.61 cm**-1
  52:      1662.22 cm**-1
  53:      1803.54 cm**-1
  54:      1850.42 cm**-1
  55:      3051.94 cm**-1
  56:      3131.61 cm**-1
  57:      3176.81 cm**-1
  58:      3182.17 cm**-1
  59:      3195.68 cm**-1
  60:      3205.75 cm**-1
  61:      3212.24 cm**-1
  62:      3754.63 cm**-1

IR SPECTRUM
-----------

 Mode    freq (cm**-1)   T**2         TX         TY         TZ
-------------------------------------------------------------------
   6:        36.20    1.386304  ( -0.108139  -0.498371   1.061243)
   7:        71.48    2.599667  (  0.434015  -1.551735  -0.058465)
   8:        82.87    0.343710  (  0.520201  -0.070200  -0.261098)
   9:        91.06    1.189941  ( -0.069428  -1.050922   0.284050)
  10:       105.41    2.285804  (  0.584207  -0.795774  -1.145098)
  11:       139.08    3.426679  (  0.725549  -0.651548  -1.573450)
  12:       231.48    4.192055  (  0.891360   1.544750  -1.005624)
  13:       276.52    1.021902  ( -0.968920  -0.156640  -0.241992)
  14:       312.29    1.290426  (  0.507524  -0.351577  -0.953540)
  15:       363.90    0.272448  ( -0.312305   0.413605   0.062002)
  16:       410.23    8.239793  (  2.624163   0.650499   0.964579)
  17:       442.91    5.883572  (  0.699449  -0.800932  -2.180103)
  18:       519.84    1.531161  ( -1.061411  -0.310287  -0.555238)
  19:       547.05    3.188770  ( -1.737316   0.395666  -0.118113)
  20:       558.12    1.677444  ( -0.513527   1.013809   0.621229)
  21:       597.28    9.311349  (  0.857463   2.747504  -1.013570)
  22:       602.20   63.901836  ( -1.597563   4.097147   6.675553)
  23:       640.29   24.166012  (  3.124160   3.786487  -0.261065)
  24:       672.95   21.482773  ( -4.321786  -1.610321  -0.460226)
  25:       727.07   55.985499  ( -2.483598   1.977341   6.775497)
  26:       752.35   33.597197  (  0.240324   4.512768   3.629651)
  27:       780.47   18.258382  ( -0.504367   0.260544   4.235105)
  28:       818.82    0.442389  (  0.476336  -0.374040   0.274931)
  29:       844.01   18.791840  (  0.601355   1.134499   4.140426)
  30:       903.19    4.911480  ( -2.180925  -0.284927   0.271773)
  31:       943.20   33.414991  ( -4.089327   0.607974   4.040144)
  32:       997.11    3.422303  ( -0.843536   0.264851   1.624994)
  33:      1012.22   38.690503  ( -6.022485   0.307575   1.524985)
  34:      1017.32    0.034015  (  0.016363   0.030845  -0.181096)
  35:      1047.25    6.329635  ( -0.993646   2.275896  -0.403236)
  36:      1059.84   17.346197  (  3.365980   2.433907   0.304087)
  37:      1110.99   11.593576  (  2.315066  -2.127037  -1.307578)
  38:      1130.21   84.096563  ( -8.142295  -3.061747  -2.902638)
  39:      1166.92    7.614259  (  0.074894  -2.698530  -0.571476)
  40:      1204.82   59.257522  (  2.093652   6.260894   3.959211)
  41:      1234.90  696.841737  (-25.438895   1.105134   6.962976)
  42:      1244.92   14.654859  (  1.137023   3.285786  -1.601763)
  43:      1282.69   46.252810  ( -6.560088  -1.607018   0.797217)
  44:      1366.27   31.210709  ( -4.626463  -2.886929   1.213338)
  45:      1379.52  223.848800  ( 13.905938   5.485599  -0.617964)
  46:      1382.38   24.367740  ( -3.758024   3.200277  -0.056741)
  47:      1439.14   14.297738  (  0.610974   0.273673   3.721499)
  48:      1446.53    9.845556  (  1.233335  -2.881227   0.151558)
  49:      1484.99   85.684893  (  8.934187   2.400289  -0.322203)
  50:      1517.54   22.887484  ( -4.365435   1.952855   0.129682)
  51:      1626.61    6.897875  (  2.334780  -1.068164  -0.552907)
  52:      1662.22   67.523665  ( -4.980498  -6.137157   2.248022)
  53:      1803.54  391.796761  (  8.665300 -16.077851   7.629681)
  54:      1850.42  254.702290  (  2.476215   0.682154  15.751359)
  55:      3051.94    0.853038  ( -0.793330   0.136807  -0.452714)
  56:      3131.61    1.350276  (  0.319176  -1.076744   0.298372)
  57:      3176.81    2.985772  ( -1.474375   0.110424   0.894314)
  58:      3182.17    2.049700  ( -0.312385  -1.289518   0.537827)
  59:      3195.68    6.104951  (  2.439307   0.345907   0.187293)
  60:      3205.75    1.432129  (  0.192662  -1.110005   0.403607)
  61:      3212.24    3.845401  (  1.268770   1.426930  -0.446650)
  62:      3754.63  114.566303  (  5.725120   8.844429  -1.888221)

--------------------------
THERMOCHEMISTRY AT 298.15K
--------------------------

Temperature         ... 298.15 K
Pressure            ... 1.00 atm
Total Mass          ... 180.16 AMU

Throughout the following assumptions are being made:
  (1) The electronic state is orbitally nondegenerate
  (2) There are no thermally accessible electronically excited states
  (3) Hindered rotations indicated by low frequency modes are not
      treated as such but are treated as vibrations and this may
      cause some error
  (4) All equations used are the standard statistical mechanics
      equations for an ideal gas
  (5) All vibrations are strictly harmonic

freq.      36.20  E(vib)   ...       0.54
freq.      71.48  E(vib)   ...       0.50
freq.      82.87  E(vib)   ...       0.48
freq.      91.06  E(vib)   ...       0.47
freq.     105.41  E(vib)   ...       0.45
freq.     139.08  E(vib)   ...       0.42
freq.     231.48  E(vib)   ...       0.32
freq.     276.52  E(vib)   ...       0.28
freq.     312.29  E(vib)   ...       0.25
freq.     363.90  E(vib)   ...       0.22
freq.     410.23  E(vib)   ...       0.19
freq.     442.91  E(vib)   ...       0.17
freq.     519.84  E(vib)   ...       0.13
freq.     547.05  E(vib)   ...       0.12
freq.     558.12  E(vib)   ...       0.12
freq.     597.28  E(vib)   ...       0.10
freq.     602.20  E(vib)   ...       0.10
freq.     640.29  E(vib)   ...       0.09
freq.     672.95  E(vib)   ...       0.08
freq.     727.07  E(vib)   ...       0.06
freq.     752.35  E(vib)   ...       0.06
freq.     780.47  E(vib)   ...       0.05
freq.     818.82  E(vib)   ...       0.05
freq.     844.01  E(vib)   ...       0.04
freq.     903.19  E(vib)   ...       0.03
freq.     943.20  E(vib)   ...       0.03
freq.     997.11  E(vib)   ...       0.02
freq.    1012.22  E(vib)   ...       0.02
freq.    1017.32  E(vib)   ...       0.02
freq.    1047.25  E(vib)   ...       0.02
freq.    1059.84  E(vib)   ...       0.02
freq.    1110.99  E(vib)   ...       0.01
freq.    1130.21  E(vib)   ...       0.01
freq.    1166.92  E(vib)   ...       0.01
freq.    1204.82  E(vib)   ...       0.01
freq.    1234.90  E(vib)   ...       0.01
freq.    1244.92  E(vib)   ...       0.01
freq.    1282.69  E(vib)   ...       0.01
freq.    1366.27  E(vib)   ...       0.01
freq.    1379.52  E(vib)   ...       0.01
freq.    1382.38  E(vib)   ...       0.01
freq.    1439.14  E(vib)   ...       0.00
freq.    1446.53  E(vib)   ...       0.00
freq.    1484.99  E(vib)   ...       0.00
freq.    1517.54  E(vib)   ...       0.00
freq.    1626.61  E(vib)   ...       0.00
freq.    1662.22  E(vib)   ...       0.00
freq.    1803.54  E(vib)   ...       0.00
freq.    1850.42  E(vib)   ...       0.00
freq.    3051.94  E(vib)   ...       0.00
freq.    3131.61  E(vib)   ...       0.00
freq.    3176.81  E(vib)   ...       0.00
freq.    3182.17  E(vib)   ...       0.00
freq.    3195.68  E(vib)   ...       0.00
freq.    3205.75  E(vib)   ...       0.00
freq.    3212.24  E(vib)   ...       0.00
freq.    3754.63  E(vib)   ...       0.00

------------
INNER ENERGY
------------

The inner energy is: U= E(el) + E(ZPE) + E(vib) + E(rot) + E(trans)
    E(el)   - is the total energy from the electronic structure calculation
              = E(kin-el) + E(nuc-el) + E(el-el) + E(nuc-nuc)
    E(ZPE)  - the the zero temperature vibrational energy from the frequency calculation
    E(vib)  - the the finite temperature correction to E(ZPE) due to population
              of excited vibrational states
    E(rot)  - is the rotational thermal energy
    E(trans)- is the translational thermal energy

Summary of contributions to the inner energy U:
Electronic energy                ...   -647.94202487 Eh
Zero point energy                ...      0.15685061 Eh      98.43 kcal/mol
Thermal vibrational correction   ...      0.00887746 Eh       5.57 kcal/mol
Thermal rotational correction    ...      0.00141627 Eh       0.89 kcal/mol
Thermal translational correction ...      0.00141627 Eh       0.89 kcal/mol
-----------------------------------------------------------------------
Total thermal energy                   -647.77346426 Eh

Summary of corrections to the electronic energy:
(perhaps to be used in another calculation)
Total thermal correction                  0.01171000 Eh       7.35 kcal/mol
Non-thermal (ZPE) correction              0.15685061 Eh      98.43 kcal/mol
-----------------------------------------------------------------------
Total correction                          0.16856061 Eh     105.77 kcal/mol

--------
ENTHALPY
--------

The enthalpy is H = U + kB*T
                kB is Boltzmann's constant
Total free energy                 ...   -647.77346426 Eh
Thermal Enthalpy correction       ...      0.00094421 Eh       0.59 kcal/mol
-----------------------------------------------------------------------
Total Enthalpy                    ...   -647.77252005 Eh

Note: Only C1 symmetry has been detected, increase convergence thresholds
      if your molecule has a higher symmetry. Symmetry factor of 1.0 is
      used for the rotational entropy correction.

Note: Rotational entropy computed according to Herzberg
Infrared and Raman Spectra, Chapter V,1, Van Nostrand Reinhold, 1945
Point Group:  C1, Symmetry Number:   1
Rotational constants in cm-1:     0.038243     0.024958     0.016789

Vibrational entropy computed according to the QRRHO of S. Grimme
Chem.Eur.J. 2012 18 9955

-------
ENTROPY
-------

The entropy contributions are T*S = T*(S(el)+S(vib)+S(rot)+S(trans))
     S(el)   - electronic entropy
     S(vib)  - vibrational entropy
     S(rot)  - rotational entropy
     S(trans)- translational entropy
The entropies will be listed as mutliplied by the temperature to get
units of energy

Electronic entropy                ...      0.00000000 Eh      0.00 kcal/mol
Vibrational entropy               ...      0.01560402 Eh      9.79 kcal/mol
Rotational entropy                ...      0.01472335 Eh      9.24 kcal/mol
Translational entropy             ...      0.01970496 Eh     12.37 kcal/mol
-----------------------------------------------------------------------
Final entropy term                ...      0.05003233 Eh     31.40 kcal/mol

In case the symmetry of your molecule has not been determined correctly
or in case you have a reason to use a different symmetry number we print
out the resulting rotational entropy values for sn=1,12 :
 --------------------------------------------------------
|  sn= 1 | S(rot)=       0.01472335 Eh      9.24 kcal/mol|
|  sn= 2 | S(rot)=       0.01406890 Eh      8.83 kcal/mol|
|  sn= 3 | S(rot)=       0.01368606 Eh      8.59 kcal/mol|
|  sn= 4 | S(rot)=       0.01341444 Eh      8.42 kcal/mol|
|  sn= 5 | S(rot)=       0.01320375 Eh      8.29 kcal/mol|
|  sn= 6 | S(rot)=       0.01303161 Eh      8.18 kcal/mol|

                             ****ORCA TERMINATED NORMALLY****
TOTAL RUN TIME: 0 days 5 hours 25 minutes 18 seconds 703 msec
